[Molden Format]
[N_Atoms]
                    6
[Atoms] (AU)
C1          1      6           0.00000000      0.00000000      1.24343979
C1          2      6           0.00000000      0.00000000     -1.24343979
H2          3      1           0.00000000      1.74610694      2.36593711
H2          4      1           0.00000000     -1.74610694      2.36593711
H2          5      1           0.00000000      1.74610694     -2.36593711
H2          6      1           0.00000000     -1.74610694     -2.36593711
[Charge] (Mulliken)
   0.0000000000000000     
   0.0000000000000000     
   0.0000000000000000     
   0.0000000000000000     
   0.0000000000000000     
   0.0000000000000000     
[GTO] (AU)
   1
   s   6
  3.047524880E+03  1.834737132E-03
  4.573695180E+02  1.403732281E-02
  1.039486850E+02  6.884262227E-02
  2.921015530E+01  2.321844432E-01
  9.286662960E+00  4.679413484E-01
  3.163926960E+00  3.623119853E-01
   s   3
  7.868272350E+00 -1.193324198E-01
  1.881288540E+00 -1.608541517E-01
  5.442492580E-01  1.143456438E+00
   s   1
  1.687144782E-01  1.000000000E+00
   p   3
  7.868272350E+00  6.899906659E-02
  1.881288540E+00  3.164239610E-01
  5.442492580E-01  7.443082909E-01
   p   1
  1.687144782E-01  1.000000000E+00
   d   1
  8.000000000E-01  1.000000000E+00
 
   2
   s   6
  3.047524880E+03  1.834737132E-03
  4.573695180E+02  1.403732281E-02
  1.039486850E+02  6.884262227E-02
  2.921015530E+01  2.321844432E-01
  9.286662960E+00  4.679413484E-01
  3.163926960E+00  3.623119853E-01
   s   3
  7.868272350E+00 -1.193324198E-01
  1.881288540E+00 -1.608541517E-01
  5.442492580E-01  1.143456438E+00
   s   1
  1.687144782E-01  1.000000000E+00
   p   3
  7.868272350E+00  6.899906659E-02
  1.881288540E+00  3.164239610E-01
  5.442492580E-01  7.443082909E-01
   p   1
  1.687144782E-01  1.000000000E+00
   d   1
  8.000000000E-01  1.000000000E+00
 
   3
   s   3
  1.873113696E+01  3.349460434E-02
  2.825394365E+00  2.347269535E-01
  6.401216923E-01  8.137573261E-01
   s   1
  1.612777588E-01  1.000000000E+00
 
   4
   s   3
  1.873113696E+01  3.349460434E-02
  2.825394365E+00  2.347269535E-01
  6.401216923E-01  8.137573261E-01
   s   1
  1.612777588E-01  1.000000000E+00
 
   5
   s   3
  1.873113696E+01  3.349460434E-02
  2.825394365E+00  2.347269535E-01
  6.401216923E-01  8.137573261E-01
   s   1
  1.612777588E-01  1.000000000E+00
 
   6
   s   3
  1.873113696E+01  3.349460434E-02
  2.825394365E+00  2.347269535E-01
  6.401216923E-01  8.137573261E-01
   s   1
  1.612777588E-01  1.000000000E+00
 
[MO]
Sym=     1ag 
Ene=   -11.3510
Spin= Alpha
Occup=    2.00000
   1         0.70239614
   2         0.01436072
   3         0.00095365
   4         0.00000000
   5         0.00000000
   6        -0.00193768
   7         0.00000000
   8         0.00000000
   9        -0.00121008
  10        -0.00000000
  11        -0.00000000
  12         0.00000000
  13         0.00000000
  14         0.00000000
  15         0.00000000
  16         0.70239614
  17         0.01436072
  18         0.00095365
  19         0.00000000
  20         0.00000000
  21         0.00193768
  22         0.00000000
  23         0.00000000
  24         0.00121008
  25        -0.00000000
  26        -0.00000000
  27         0.00000000
  28         0.00000000
  29         0.00000000
  30         0.00000000
  31         0.00150075
  32         0.00167566
  33         0.00150075
  34         0.00167566
  35         0.00150075
  36         0.00167566
  37         0.00150075
  38         0.00167566
Sym=     2ag 
Ene=    -1.4519
Spin= Alpha
Occup=    2.00000
   1        -0.15704490
   2         0.20128217
   3         0.22746091
   4         0.00000000
   5         0.00000000
   6        -0.04943633
   7         0.00000000
   8         0.00000000
   9        -0.03087296
  10         0.00000000
  11        -0.00000000
  12        -0.00000000
  13         0.00000000
  14         0.00000000
  15         0.00000000
  16        -0.15704490
  17         0.20128217
  18         0.22746091
  19         0.00000000
  20         0.00000000
  21         0.04943633
  22         0.00000000
  23         0.00000000
  24         0.03087296
  25         0.00000000
  26        -0.00000000
  27        -0.00000000
  28         0.00000000
  29         0.00000000
  30         0.00000000
  31         0.08401736
  32         0.09380973
  33         0.08401736
  34         0.09380973
  35         0.08401736
  36         0.09380973
  37         0.08401736
  38         0.09380973
Sym=     3ag 
Ene=    -0.6139
Spin= Alpha
Occup=    2.00000
   1         0.04192672
   2        -0.04693408
   3        -0.05315194
   4         0.00000000
   5         0.00000000
   6         0.35796916
   7         0.00000000
   8         0.00000000
   9         0.22355155
  10         0.00000000
  11         0.00000000
  12         0.00000000
  13         0.00000000
  14         0.00000000
  15         0.00000000
  16         0.04192672
  17        -0.04693408
  18        -0.05315194
  19         0.00000000
  20         0.00000000
  21        -0.35796916
  22         0.00000000
  23         0.00000000
  24        -0.22355155
  25         0.00000000
  26         0.00000000
  27         0.00000000
  28         0.00000000
  29         0.00000000
  30         0.00000000
  31         0.11082348
  32         0.12374016
  33         0.11082348
  34         0.12374016
  35         0.11082348
  36         0.12374016
  37         0.11082348
  38         0.12374016
Sym=     4ag 
Ene=    -0.1368
Spin= Alpha
Occup=    0.00000
   1         0.09344769
   2        -0.46523643
   3        -0.51997545
   4         0.00000000
   5         0.00000000
   6        -0.39385746
   7         0.00000000
   8         0.00000000
   9        -0.24596378
  10         0.00000000
  11         0.00000000
  12         0.00000000
  13         0.00000000
  14         0.00000000
  15         0.00000000
  16         0.09344769
  17        -0.46523643
  18        -0.51997545
  19         0.00000000
  20         0.00000000
  21         0.39385746
  22         0.00000000
  23         0.00000000
  24         0.24596378
  25         0.00000000
  26         0.00000000
  27         0.00000000
  28         0.00000000
  29         0.00000000
  30         0.00000000
  31         0.33932462
  32         0.37887350
  33         0.33932462
  34         0.37887350
  35         0.33932462
  36         0.37887350
  37         0.33932462
  38         0.37887350
Sym=     5ag 
Ene=     4.3341
Spin= Alpha
Occup=    0.00000
   1         0.07581559
   2         0.86004985
   3        -2.69043384
   4         0.00000000
   5         0.00000000
   6         0.10482318
   7         0.00000000
   8         0.00000000
   9        -0.65017394
  10         0.25668141
  11         0.18123904
  12         0.21517348
  13         0.00000000
  14         0.00000000
  15         0.00000000
  16         0.07581559
  17         0.86004985
  18        -2.69043384
  19         0.00000000
  20         0.00000000
  21        -0.10482318
  22         0.00000000
  23         0.00000000
  24         0.65017394
  25         0.25668141
  26         0.18123904
  27         0.21517348
  28         0.00000000
  29         0.00000000
  30         0.00000000
  31        -0.18801305
  32         1.21201093
  33        -0.18801305
  34         1.21201093
  35        -0.18801305
  36         1.21201093
  37        -0.18801305
  38         1.21201093
Sym=     6ag 
Ene=     4.4694
Spin= Alpha
Occup=    0.00000
   1         0.02173519
   2         0.21689782
   3         0.31978762
   4         0.00000000
   5         0.00000000
   6        -0.45210358
   7         0.00000000
   8         0.00000000
   9         0.91036847
  10         0.05497847
  11         0.18943313
  12         0.14833746
  13         0.00000000
  14         0.00000000
  15         0.00000000
  16         0.02173519
  17         0.21689782
  18         0.31978762
  19         0.00000000
  20         0.00000000
  21         0.45210358
  22         0.00000000
  23         0.00000000
  24        -0.91036847
  25         0.05497847
  26         0.18943313
  27         0.14833746
  28         0.00000000
  29         0.00000000
  30         0.00000000
  31         0.24695988
  32        -0.53809026
  33         0.24695988
  34        -0.53809026
  35         0.24695988
  36        -0.53809026
  37         0.24695988
  38        -0.53809026
Sym=     7ag 
Ene=     4.5630
Spin= Alpha
Occup=    0.00000
   1         0.01373826
   2         0.16124272
   3        -0.70402897
   4         0.00000000
   5         0.00000000
   6         0.36724503
   7         0.00000000
   8         0.00000000
   9        -0.80207733
  10         0.02673558
  11         0.16651705
  12         0.03942888
  13         0.00000000
  14         0.00000000
  15         0.00000000
  16         0.01373826
  17         0.16124272
  18        -0.70402897
  19         0.00000000
  20         0.00000000
  21        -0.36724503
  22         0.00000000
  23         0.00000000
  24         0.80207733
  25         0.02673558
  26         0.16651705
  27         0.03942888
  28         0.00000000
  29         0.00000000
  30         0.00000000
  31         0.42840569
  32        -0.06556570
  33         0.42840569
  34        -0.06556570
  35         0.42840569
  36        -0.06556570
  37         0.42840569
  38        -0.06556570
Sym=     8ag 
Ene=     6.0375
Spin= Alpha
Occup=    0.00000
   1         0.02263444
   2         0.14794931
   3        -0.42758070
   4         0.00000000
   5         0.00000000
   6        -0.06084874
   7         0.00000000
   8         0.00000000
   9        -0.16031167
  10         0.68723057
  11        -0.55646223
  12        -0.08473819
  13         0.00000000
  14         0.00000000
  15         0.00000000
  16         0.02263444
  17         0.14794931
  18        -0.42758070
  19         0.00000000
  20         0.00000000
  21         0.06084874
  22         0.00000000
  23         0.00000000
  24         0.16031167
  25         0.68723057
  26        -0.55646223
  27        -0.08473819
  28         0.00000000
  29         0.00000000
  30         0.00000000
  31         0.32000884
  32         0.02793594
  33         0.32000884
  34         0.02793594
  35         0.32000884
  36         0.02793594
  37         0.32000884
  38         0.02793594
Sym=     9ag 
Ene=     6.4370
Spin= Alpha
Occup=    0.00000
   1         0.03569858
   2         0.24296473
   3        -0.08578296
   4         0.00000000
   5         0.00000000
   6        -0.28465554
   7         0.00000000
   8         0.00000000
   9         0.45085221
  10         0.33159626
  11         0.53692971
  12        -0.63092146
  13         0.00000000
  14         0.00000000
  15         0.00000000
  16         0.03569858
  17         0.24296473
  18        -0.08578296
  19         0.00000000
  20         0.00000000
  21         0.28465554
  22         0.00000000
  23         0.00000000
  24        -0.45085221
  25         0.33159626
  26         0.53692971
  27        -0.63092146
  28         0.00000000
  29         0.00000000
  30         0.00000000
  31        -0.11469453
  32        -0.00360593
  33        -0.11469453
  34        -0.00360593
  35        -0.11469453
  36        -0.00360593
  37        -0.11469453
  38        -0.00360593
Sym=    10ag 
Ene=    13.1750
Spin= Alpha
Occup=    0.00000
   1         0.31718834
   2        -2.38639177
   3        -0.62345075
   4         0.00000000
   5         0.00000000
   6         0.12699628
   7         0.00000000
   8         0.00000000
   9        -0.09749014
  10         1.25630824
  11         1.26444182
  12         1.22939939
  13         0.00000000
  14         0.00000000
  15         0.00000000
  16         0.31718834
  17        -2.38639177
  18        -0.62345075
  19         0.00000000
  20         0.00000000
  21        -0.12699628
  22         0.00000000
  23         0.00000000
  24         0.09749014
  25         1.25630824
  26         1.26444182
  27         1.22939939
  28         0.00000000
  29         0.00000000
  30         0.00000000
  31        -0.14268886
  32         0.20551598
  33        -0.14268886
  34         0.20551598
  35        -0.14268886
  36         0.20551598
  37        -0.14268886
  38         0.20551598
Sym=     1b3u
Ene=    -0.5741
Spin= Alpha
Occup=    2.00000
   1         0.00000000
   2         0.00000000
   3         0.00000000
   4         0.42457747
   5         0.00000000
   6         0.00000000
   7         0.26514841
   8         0.00000000
   9         0.00000000
  10         0.00000000
  11         0.00000000
  12         0.00000000
  13         0.00000000
  14        -0.00000000
  15         0.00000000
  16         0.00000000
  17         0.00000000
  18         0.00000000
  19         0.42457747
  20         0.00000000
  21         0.00000000
  22         0.26514841
  23         0.00000000
  24         0.00000000
  25         0.00000000
  26         0.00000000
  27         0.00000000
  28         0.00000000
  29         0.00000000
  30         0.00000000
  31         0.00000000
  32         0.00000000
  33         0.00000000
  34         0.00000000
  35         0.00000000
  36         0.00000000
  37         0.00000000
  38         0.00000000
Sym=     2b3u
Ene=     4.9011
Spin= Alpha
Occup=    0.00000
   1         0.00000000
   2         0.00000000
   3         0.00000000
   4        -0.67399796
   5         0.00000000
   6         0.00000000
   7         0.63613149
   8         0.00000000
   9         0.00000000
  10         0.00000000
  11         0.00000000
  12         0.00000000
  13         0.00000000
  14         0.16954159
  15         0.00000000
  16         0.00000000
  17         0.00000000
  18         0.00000000
  19        -0.67399796
  20         0.00000000
  21         0.00000000
  22         0.63613149
  23         0.00000000
  24         0.00000000
  25         0.00000000
  26         0.00000000
  27         0.00000000
  28         0.00000000
  29        -0.16954159
  30         0.00000000
  31         0.00000000
  32         0.00000000
  33         0.00000000
  34         0.00000000
  35         0.00000000
  36         0.00000000
  37         0.00000000
  38         0.00000000
Sym=     3b3u
Ene=     5.6862
Spin= Alpha
Occup=    0.00000
   1         0.00000000
   2         0.00000000
   3         0.00000000
   4         0.29565681
   5         0.00000000
   6         0.00000000
   7        -0.16796419
   8         0.00000000
   9         0.00000000
  10         0.00000000
  11         0.00000000
  12         0.00000000
  13         0.00000000
  14         0.59719330
  15         0.00000000
  16         0.00000000
  17         0.00000000
  18         0.00000000
  19         0.29565681
  20         0.00000000
  21         0.00000000
  22        -0.16796419
  23         0.00000000
  24         0.00000000
  25         0.00000000
  26         0.00000000
  27         0.00000000
  28         0.00000000
  29        -0.59719330
  30         0.00000000
  31         0.00000000
  32         0.00000000
  33         0.00000000
  34         0.00000000
  35         0.00000000
  36         0.00000000
  37         0.00000000
  38         0.00000000
Sym=     1b2u
Ene=    -0.8399
Spin= Alpha
Occup=    2.00000
   1         0.00000000
   2         0.00000000
   3         0.00000000
   4         0.00000000
   5         0.27462609
   6         0.00000000
   7         0.00000000
   8         0.17150385
   9         0.00000000
  10         0.00000000
  11         0.00000000
  12         0.00000000
  13         0.00000000
  14         0.00000000
  15         0.00000000
  16         0.00000000
  17         0.00000000
  18         0.00000000
  19         0.00000000
  20         0.27462609
  21         0.00000000
  22         0.00000000
  23         0.17150385
  24         0.00000000
  25         0.00000000
  26         0.00000000
  27         0.00000000
  28         0.00000000
  29         0.00000000
  30        -0.00000000
  31         0.12452096
  32         0.13903410
  33        -0.12452096
  34        -0.13903410
  35         0.12452096
  36         0.13903410
  37        -0.12452096
  38        -0.13903410
Sym=     2b2u
Ene=    -0.1546
Spin= Alpha
Occup=    0.00000
   1         0.00000000
   2         0.00000000
   3         0.00000000
   4         0.00000000
   5        -0.50949619
   6         0.00000000
   7         0.00000000
   8        -0.31818011
   9         0.00000000
  10         0.00000000
  11         0.00000000
  12         0.00000000
  13         0.00000000
  14         0.00000000
  15         0.00000000
  16         0.00000000
  17         0.00000000
  18         0.00000000
  19         0.00000000
  20        -0.50949619
  21         0.00000000
  22         0.00000000
  23        -0.31818011
  24         0.00000000
  25         0.00000000
  26         0.00000000
  27         0.00000000
  28         0.00000000
  29         0.00000000
  30        -0.00000000
  31         0.36453356
  32         0.40702059
  33        -0.36453356
  34        -0.40702059
  35         0.36453356
  36         0.40702059
  37        -0.36453356
  38        -0.40702059
Sym=     3b2u
Ene=     4.3902
Spin= Alpha
Occup=    0.00000
   1         0.00000000
   2         0.00000000
   3         0.00000000
   4         0.00000000
   5         0.10963070
   6         0.00000000
   7         0.00000000
   8        -0.70467563
   9         0.00000000
  10         0.00000000
  11         0.00000000
  12         0.00000000
  13         0.00000000
  14         0.00000000
  15        -0.13965377
  16         0.00000000
  17         0.00000000
  18         0.00000000
  19         0.00000000
  20         0.10963070
  21         0.00000000
  22         0.00000000
  23        -0.70467563
  24         0.00000000
  25         0.00000000
  26         0.00000000
  27         0.00000000
  28         0.00000000
  29         0.00000000
  30         0.13965377
  31        -0.48021052
  32         1.19994513
  33         0.48021052
  34        -1.19994513
  35        -0.48021052
  36         1.19994513
  37         0.48021052
  38        -1.19994513
Sym=     4b2u
Ene=     4.8680
Spin= Alpha
Occup=    0.00000
   1         0.00000000
   2         0.00000000
   3         0.00000000
   4         0.00000000
   5         0.66157224
   6         0.00000000
   7         0.00000000
   8        -1.30474209
   9         0.00000000
  10         0.00000000
  11         0.00000000
  12         0.00000000
  13         0.00000000
  14         0.00000000
  15        -0.12581127
  16         0.00000000
  17         0.00000000
  18         0.00000000
  19         0.00000000
  20         0.66157224
  21         0.00000000
  22         0.00000000
  23        -1.30474209
  24         0.00000000
  25         0.00000000
  26         0.00000000
  27         0.00000000
  28         0.00000000
  29         0.00000000
  30         0.12581127
  31         0.18536451
  32         0.72606772
  33        -0.18536451
  34        -0.72606772
  35         0.18536451
  36         0.72606772
  37        -0.18536451
  38        -0.72606772
Sym=     5b2u
Ene=     6.3499
Spin= Alpha
Occup=    0.00000
   1         0.00000000
   2         0.00000000
   3         0.00000000
   4         0.00000000
   5         0.27924116
   6         0.00000000
   7         0.00000000
   8        -0.04688353
   9         0.00000000
  10         0.00000000
  11         0.00000000
  12         0.00000000
  13         0.00000000
  14         0.00000000
  15         0.68777760
  16         0.00000000
  17         0.00000000
  18         0.00000000
  19         0.00000000
  20         0.27924116
  21         0.00000000
  22         0.00000000
  23        -0.04688353
  24         0.00000000
  25         0.00000000
  26         0.00000000
  27         0.00000000
  28         0.00000000
  29         0.00000000
  30        -0.68777760
  31        -0.40091994
  32         0.24840391
  33         0.40091994
  34        -0.24840391
  35        -0.40091994
  36         0.24840391
  37         0.40091994
  38        -0.24840391
Sym=     1b1g
Ene=     5.6462
Spin= Alpha
Occup=    0.00000
   1         0.00000000
   2         0.00000000
   3         0.00000000
   4         0.00000000
   5         0.00000000
   6         0.00000000
   7         0.00000000
   8         0.00000000
   9         0.00000000
  10         0.00000000
  11         0.00000000
  12         0.00000000
  13         0.67907532
  14         0.00000000
  15         0.00000000
  16         0.00000000
  17         0.00000000
  18         0.00000000
  19         0.00000000
  20         0.00000000
  21         0.00000000
  22         0.00000000
  23         0.00000000
  24         0.00000000
  25         0.00000000
  26         0.00000000
  27         0.00000000
  28         0.67907532
  29         0.00000000
  30         0.00000000
  31         0.00000000
  32         0.00000000
  33         0.00000000
  34         0.00000000
  35         0.00000000
  36         0.00000000
  37         0.00000000
  38         0.00000000
Sym=     1b1u
Ene=   -11.3300
Spin= Alpha
Occup=    2.00000
   1         0.70441840
   2         0.01170313
   3        -0.00204849
   4         0.00000000
   5         0.00000000
   6         0.00190486
   7         0.00000000
   8         0.00000000
   9         0.00118958
  10        -0.00000000
  11        -0.00000000
  12        -0.00000000
  13         0.00000000
  14         0.00000000
  15         0.00000000
  16        -0.70441840
  17        -0.01170313
  18         0.00204849
  19         0.00000000
  20         0.00000000
  21         0.00190486
  22         0.00000000
  23         0.00000000
  24         0.00118958
  25         0.00000000
  26         0.00000000
  27         0.00000000
  28         0.00000000
  29         0.00000000
  30         0.00000000
  31         0.00113424
  32         0.00126644
  33         0.00113424
  34         0.00126644
  35        -0.00113424
  36        -0.00126644
  37        -0.00113424
  38        -0.00126644
Sym=     2b1u
Ene=    -1.0245
Spin= Alpha
Occup=    2.00000
   1        -0.11380289
   2         0.16326160
   3         0.18420476
   4         0.00000000
   5         0.00000000
   6         0.15297796
   7         0.00000000
   8         0.00000000
   9         0.09553466
  10         0.00000000
  11        -0.00000000
  12         0.00000000
  13         0.00000000
  14         0.00000000
  15         0.00000000
  16         0.11380289
  17        -0.16326160
  18        -0.18420476
  19         0.00000000
  20         0.00000000
  21         0.15297796
  22         0.00000000
  23         0.00000000
  24         0.09553466
  25        -0.00000000
  26         0.00000000
  27        -0.00000000
  28         0.00000000
  29         0.00000000
  30         0.00000000
  31         0.12314898
  32         0.13750221
  33         0.12314898
  34         0.13750221
  35        -0.12314898
  36        -0.13750221
  37        -0.12314898
  38        -0.13750221
Sym=     3b1u
Ene=    -0.1380
Spin= Alpha
Occup=    0.00000
   1         0.11653857
   2        -0.47600745
   3        -0.53246172
   4         0.00000000
   5         0.00000000
   6        -0.30813332
   7         0.00000000
   8         0.00000000
   9        -0.19242910
  10         0.00000000
  11         0.00000000
  12         0.00000000
  13         0.00000000
  14         0.00000000
  15         0.00000000
  16        -0.11653857
  17         0.47600745
  18         0.53246172
  19         0.00000000
  20         0.00000000
  21        -0.30813332
  22         0.00000000
  23         0.00000000
  24        -0.19242910
  25        -0.00000000
  26        -0.00000000
  27        -0.00000000
  28         0.00000000
  29         0.00000000
  30         0.00000000
  31         0.35881541
  32         0.40063597
  33         0.35881541
  34         0.40063597
  35        -0.35881541
  36        -0.40063597
  37        -0.35881541
  38        -0.40063597
Sym=     4b1u
Ene=    -0.0957
Spin= Alpha
Occup=    0.00000
   1         0.09521982
   2        -0.57815460
   3        -0.64573184
   4         0.00000000
   5         0.00000000
   6         0.83253479
   7         0.00000000
   8         0.00000000
   9         0.51991754
  10         0.00000000
  11        -0.00000000
  12         0.00000000
  13         0.00000000
  14         0.00000000
  15         0.00000000
  16        -0.09521982
  17         0.57815460
  18         0.64573184
  19         0.00000000
  20         0.00000000
  21         0.83253479
  22         0.00000000
  23         0.00000000
  24         0.51991754
  25        -0.00000000
  26         0.00000000
  27        -0.00000000
  28         0.00000000
  29         0.00000000
  30         0.00000000
  31        -0.05101408
  32        -0.05695986
  33        -0.05101408
  34        -0.05695986
  35         0.05101408
  36         0.05695986
  37         0.05101408
  38         0.05695986
Sym=     5b1u
Ene=     4.1675
Spin= Alpha
Occup=    0.00000
   1        -0.05185499
   2        -0.59331974
   3         5.17129401
   4         0.00000000
   5         0.00000000
   6         0.29309608
   7         0.00000000
   8         0.00000000
   9        -3.72365986
  10        -0.09996842
  11        -0.11391330
  12         0.29723129
  13         0.00000000
  14         0.00000000
  15         0.00000000
  16         0.05185499
  17         0.59331974
  18        -5.17129401
  19         0.00000000
  20         0.00000000
  21         0.29309608
  22         0.00000000
  23         0.00000000
  24        -3.72365986
  25         0.09996842
  26         0.11391330
  27        -0.29723129
  28         0.00000000
  29         0.00000000
  30         0.00000000
  31         0.07046578
  32         0.33029364
  33         0.07046578
  34         0.33029364
  35        -0.07046578
  36        -0.33029364
  37        -0.07046578
  38        -0.33029364
Sym=     6b1u
Ene=     4.3693
Spin= Alpha
Occup=    0.00000
   1         0.05996670
   2         0.62944151
   3        -2.56559575
   4         0.00000000
   5         0.00000000
   6         0.19716297
   7         0.00000000
   8         0.00000000
   9        -0.93560520
  10         0.17660334
  11         0.03490059
  12         0.24355915
  13         0.00000000
  14         0.00000000
  15         0.00000000
  16        -0.05996670
  17        -0.62944151
  18         2.56559575
  19         0.00000000
  20         0.00000000
  21         0.19716297
  22         0.00000000
  23         0.00000000
  24        -0.93560520
  25        -0.17660334
  26        -0.03490059
  27        -0.24355915
  28         0.00000000
  29         0.00000000
  30         0.00000000
  31        -0.33351044
  32         1.50320520
  33        -0.33351044
  34         1.50320520
  35         0.33351044
  36        -1.50320520
  37         0.33351044
  38        -1.50320520
Sym=     7b1u
Ene=     4.7405
Spin= Alpha
Occup=    0.00000
   1         0.08891913
   2         0.87314154
   3        -4.03948221
   4         0.00000000
   5         0.00000000
   6         0.11033969
   7         0.00000000
   8         0.00000000
   9         1.03922800
  10         0.07954517
  11         0.25504296
  12         0.26287141
  13         0.00000000
  14         0.00000000
  15         0.00000000
  16        -0.08891913
  17        -0.87314154
  18         4.03948221
  19         0.00000000
  20         0.00000000
  21         0.11033969
  22         0.00000000
  23         0.00000000
  24         1.03922800
  25        -0.07954517
  26        -0.25504296
  27        -0.26287141
  28         0.00000000
  29         0.00000000
  30         0.00000000
  31         0.41938300
  32         0.05921018
  33         0.41938300
  34         0.05921018
  35        -0.41938300
  36        -0.05921018
  37        -0.41938300
  38        -0.05921018
Sym=     8b1u
Ene=     6.5078
Spin= Alpha
Occup=    0.00000
   1         0.03175530
   2         0.25034775
   3        -1.13764755
   4         0.00000000
   5         0.00000000
   6        -0.01240374
   7         0.00000000
   8         0.00000000
   9         0.26713691
  10         0.70227301
  11        -0.68251154
  12        -0.03257883
  13         0.00000000
  14         0.00000000
  15         0.00000000
  16        -0.03175530
  17        -0.25034775
  18         1.13764755
  19         0.00000000
  20         0.00000000
  21        -0.01240374
  22         0.00000000
  23         0.00000000
  24         0.26713691
  25        -0.70227301
  26         0.68251154
  27         0.03257883
  28         0.00000000
  29         0.00000000
  30         0.00000000
  31         0.38125693
  32        -0.05249025
  33         0.38125693
  34        -0.05249025
  35        -0.38125693
  36         0.05249025
  37        -0.38125693
  38         0.05249025
Sym=     9b1u
Ene=     7.6254
Spin= Alpha
Occup=    0.00000
   1         0.01953326
   2        -0.15830671
   3        -1.45825374
   4         0.00000000
   5         0.00000000
   6         0.82637907
   7         0.00000000
   8         0.00000000
   9         0.66688840
  10         0.44373087
  11         0.47877053
  12        -1.23855065
  13         0.00000000
  14         0.00000000
  15         0.00000000
  16        -0.01953326
  17         0.15830671
  18         1.45825374
  19         0.00000000
  20         0.00000000
  21         0.82637907
  22         0.00000000
  23         0.00000000
  24         0.66688840
  25        -0.44373087
  26        -0.47877053
  27         1.23855065
  28         0.00000000
  29         0.00000000
  30         0.00000000
  31         0.01979493
  32         0.02136569
  33         0.01979493
  34         0.02136569
  35        -0.01979493
  36        -0.02136569
  37        -0.01979493
  38        -0.02136569
Sym=    10b1u
Ene=    13.0950
Spin= Alpha
Occup=    0.00000
   1         0.33274031
   2        -2.14220113
   3        -1.63315091
   4         0.00000000
   5         0.00000000
   6        -0.35502305
   7         0.00000000